REMARK SMILES CN1C(=O)[C@@H](NC(=O)[C@H](CCC(F)(F)F)[C@H](CCC(F)(F)F)C(N)=O)N=C(c2ccccc2)c2ccccc21
REMARK SMILES IDX 6 1 7 2 8 3 5 5 26 7 27 8 34 9 39 10 38 11 37 12 35 13 36 14
REMARK SMILES IDX 2 15 1 16 3 17 4 18 28 20 29 21 33 22 30 23 32 24 31 25 9 26
REMARK SMILES IDX 10 27 11 28 12 29 13 30 14 31 15 32 16 33 17 34 18 35 19 36
REMARK SMILES IDX 20 37 21 38 22 39 23 40 24 41 25 42
REMARK H PARENT 6 4 24 43 24 44
REMARK Flexibility Score:   99.900
ROOT
ATOM      1  N   UNL     1       0.233   0.018  -0.173  1.00  0.00    -0.326 N 
ATOM      2  C   UNL     1       1.180   0.276  -1.137  1.00  0.00    +0.225 C 
ATOM      3  O   UNL     1       0.902   0.416  -2.324  1.00  0.00    -0.275 OA
ATOM      4  H   UNL     1       0.445   0.224   0.792  1.00  0.00    +0.166 HD
ENDROOT
BRANCH   1   5
ATOM      5  C   UNL     1      -1.164   0.160  -0.491  1.00  0.00    +0.291 CG0
ATOM      6  G   UNL     1      -1.565   1.661  -0.396  1.00  0.00    +0.000 G0
BRANCH   5   7
ATOM      7  N   UNL     1      -1.877  -0.547   0.559  1.00  0.00    -0.249 NA
ATOM      8  C   UNL     1      -3.150  -0.705   0.397  1.00  0.00    +0.077 C 
BRANCH   8   9
ATOM      9  C   UNL     1      -3.909  -0.259  -0.811  1.00  0.00    +0.024 A 
ATOM     10  C   UNL     1      -3.787   1.040  -1.347  1.00  0.00    +0.053 A 
ATOM     11  C   UNL     1      -4.648   1.394  -2.402  1.00  0.00    +0.027 A 
ATOM     12  C   UNL     1      -5.560   0.480  -2.940  1.00  0.00    +0.002 A 
ATOM     13  C   UNL     1      -4.812  -1.180  -1.372  1.00  0.00    +0.012 A 
ATOM     14  C   UNL     1      -5.633  -0.811  -2.433  1.00  0.00    +0.001 A 
BRANCH  10  15
ATOM     15  N   UNL     1      -2.842   2.000  -0.864  1.00  0.00    -0.311 N 
ATOM     16  C   UNL     1      -3.137   3.420  -0.999  1.00  0.00    +0.153 C 
BRANCH  15  17
ATOM     17  C   UNL     1      -1.565   1.661  -0.396  1.00  0.00    +0.272 CG0
ATOM     18  O   UNL     1      -0.785   2.510   0.055  1.00  0.00    -0.270 OA
ATOM     19  G   UNL     1      -1.164   0.160  -0.491  1.00  0.00    +0.000 G0
ENDBRANCH  15  17
ENDBRANCH  10  15
ENDBRANCH   8   9
BRANCH   8  20
ATOM     20  C   UNL     1      -3.898  -1.387   1.498  1.00  0.00    +0.000 A 
ATOM     21  C   UNL     1      -3.281  -2.439   2.187  1.00  0.00    +0.010 A 
ATOM     22  C   UNL     1      -5.184  -0.971   1.867  1.00  0.00    +0.010 A 
ATOM     23  C   UNL     1      -3.958  -3.090   3.219  1.00  0.00    +0.001 A 
ATOM     24  C   UNL     1      -5.856  -1.624   2.903  1.00  0.00    +0.001 A 
ATOM     25  C   UNL     1      -5.244  -2.683   3.574  1.00  0.00    +0.000 A 
ENDBRANCH   8  20
ENDBRANCH   5   7
ENDBRANCH   1   5
BRANCH   2  26
ATOM     26  C   UNL     1       2.614   0.348  -0.591  1.00  0.00    +0.091 C 
BRANCH  26  27
ATOM     27  C   UNL     1       3.493   1.140  -1.586  1.00  0.00    +0.023 C 
BRANCH  27  28
ATOM     28  C   UNL     1       4.596   1.954  -0.905  1.00  0.00    +0.116 C 
BRANCH  28  29
ATOM     29  C   UNL     1       5.487   2.658  -1.910  1.00  0.00    +0.389 C 
ATOM     30  F   UNL     1       4.790   3.492  -2.706  1.00  0.00    -0.171 F 
ATOM     31  F   UNL     1       6.426   3.386  -1.267  1.00  0.00    -0.171 F 
ATOM     32  F   UNL     1       6.131   1.762  -2.688  1.00  0.00    -0.171 F 
ENDBRANCH  28  29
ENDBRANCH  27  28
ENDBRANCH  26  27
BRANCH  26  33
ATOM     33  C   UNL     1       3.058  -1.095  -0.209  1.00  0.00    +0.091 C 
BRANCH  33  34
ATOM     34  C   UNL     1       3.430  -1.309   1.279  1.00  0.00    +0.023 C 
BRANCH  34  35
ATOM     35  C   UNL     1       4.426  -0.342   1.919  1.00  0.00    +0.116 C 
BRANCH  35  36
ATOM     36  C   UNL     1       4.654  -0.667   3.385  1.00  0.00    +0.389 C 
ATOM     37  F   UNL     1       5.168  -1.905   3.538  1.00  0.00    -0.171 F 
ATOM     38  F   UNL     1       3.505  -0.596   4.085  1.00  0.00    -0.171 F 
ATOM     39  F   UNL     1       5.524   0.211   3.928  1.00  0.00    -0.171 F 
ENDBRANCH  35  36
ENDBRANCH  34  35
ENDBRANCH  33  34
BRANCH  33  40
ATOM     40  C   UNL     1       4.021  -1.778  -1.177  1.00  0.00    +0.221 C 
ATOM     41  N   UNL     1       5.349  -1.513  -1.076  1.00  0.00    -0.369 N 
ATOM     42  O   UNL     1       3.632  -2.552  -2.046  1.00  0.00    -0.275 OA
ATOM     43  H   UNL     1       5.925  -1.930  -1.800  1.00  0.00    +0.159 HD
ATOM     44  H   UNL     1       5.733  -0.711  -0.608  1.00  0.00    +0.159 HD
ENDBRANCH  33  40
ENDBRANCH  26  33
ENDBRANCH   2  26
TORSDOF 11
